//mumax 3.10 [linux_amd64 go1.14(gc) CUDA-11.0]
//GPU info: Tesla K20m(5062MB), CUDA Driver 11.4, cc=3.5, using cc=35 PTX
//(c) Arne Vansteenkiste, Dynamat LAB, Ghent University, Belgium
//This is free software without any warranty. See license.txt
//********************************************************************//
//  If you use mumax in any work or publication,                      //
//  we kindly ask you to cite the references in references.bib        //
//********************************************************************//
//output directory: saf/MsKu_sweeps_p7/Ms_550000/Ku_850000.out/
Nx := 512 * 2
Ny := 512 * 2
setgridsize(Nx, Ny, 2)
c := 0.25e-9
cz := 1e-9
setcellsize(c, c, cz)
SetPBC(8, 8, 0)
//resizing...
defRegion(0, layer(0))
defRegion(1, layer(1))
Msat = 550000.0
Dind = 0.002
Ku1 = 850000.0
anisU = vector(0, 0, 1)
alpha = 0.1
Aex = 1e-11
RKKY := -0.00013
scale := (RKKY * cz) / (2 * Aex.Average())
ext_scaleExchange(0, 1, scale)
m.setRegion(0, neelskyrmion(1, -1))
m.setRegion(1, neelskyrmion(-1, 1))
minimize()
save(m)
TableSave()
//********************************************************************//
//Please cite the following references, relevant for your simulation. //
//See bibtex file in output folder for justification.                 //
//********************************************************************//
//   * Mulkers et al., Phys. Rev. B 95, 144401 (2017).
//   * Vansteenkiste et al., AIP Adv. 4, 107133 (2014).
//   * Exl et al., J. Appl. Phys. 115, 17D118 (2014).
